<?xml version="1.0"?>
<VTKFile type="PolyData" version="0.1" byte_order="LittleEndian">
  <PolyData>
    <Piece NumberOfPoints="1000" NumberOfVerts="0" NumberOfLines="0" NumberOfStrips="0" NumberOfPolys="0">
      <Points>
        <DataArray type="Float32" Name="Position" NumberOfComponents="3" format="ascii">
-5 -116.266 -5 -5 -46.8173 -5 -5 -49.7225 -5 -5 -56.2196 -5 -5 -52.1053 -5 -5 -57.6353 -5 -5 -59.6797 -5 -5 -52.8777 -5 -5 -63.7907 -5 -5 -68.2754 -5 -5 -64.3854 -5 -5 -49.3158 -5 -5 -82.9586 -5 -5 -85.3796 -5 -5 -87.1597 -5 -5 -54.7612 -5 -5 -88.8717 -5 -5 -87.3339 -5 -5 -88.7035 -5 -5 -89.8675 -5 -5 -89.0393 -5 -5 -90.0313 -5 -5 -90.5188 -5 -5 -61.3118 -5 -5 -91.1602 -5 -5 -91.9499 -5 -5 -92.4199 -5 -5 -61.6305 -5 -5 -93.5055 -5 -5 -92.5759 -5 -5 -93.6594 -5 -5 -65.8289 -5 -5 -94.8792 -5 -5 -95.0304 -5 -5 -95.482 -5 -5 -95.6319 -5 -5 -95.7815 -5 -5 -95.9309 -5 -5 -96.2287 -5 -5 -83.5283 -5 -5 -96.3772 -5 -5 -96.5254 -5 -5 -96.6733 -5 -5 -88.0241 -5 -5 -96.9682 -5 -5 -97.4085 -5 -5 -97.7006 -5 -5 -88.5346 -5 -5 -98.1367 -5 -5 -98.2815 -5 -5 -97.8463 -5 -5 -97.9916 -5 -5 -98.4261 -5 -5 -98.5703 -5 -5 -98.858 -5 -5 -90.1944 -5 -5 -99.0015 -5 -5 -99.1447 -5 -5 -99.2876 -5 -5 -90.68 -5 -5 -99.4302 -5 -5 -99.5726 -5 -5 -99.7147 -5 -5 -90.8407 -5 -5 -82.3821 -5 -5 -82.575 -5 -5 -82.7672 -5 -5 -83.1492 -5 -5 -83.3391 -5 -5 -83.7167 -5 -5 -83.9044 -5 -5 -68.5354 -5 -5 -84.0913 -5 -5 -84.2775 -5 -5 -84.463 -5 -5 -70.047 -5 -5 -84.6478 -5 -5 -84.8318 -5 -5 -85.0151 -5 -5 -71.0095 -5 -5 -85.1977 -5 -5 -85.5608 -5 -5 -85.7412 -5 -5 -85.921 -5 -5 -86.1 -5 -5 -86.2784 -5 -5 -86.456 -5 -5 -71.7166 -5 -5 -86.633 -5 -5 -86.8093 -5 -5 -86.9848 -5 -5 -71.9505 -5 -5 -87.5075 -5 -5 -87.6804 -5 -5 -87.8525 -5 -5 -73.3358 -5 -5 -75.5755 -5 -5 -75.7948 -5 -5 -76.2308 -5 -5 -76.4476 -5 -5 -76.6636 -5 -5 -76.8787 -5 -5 -77.0929 -5 -5 -68.0131 -5 -5 -77.3064 -5 -5 -77.5191 -5 -5 -77.7309 -5 -5 -77.9419 -5 -5 -78.1521 -5 -5 -78.3614 -5 -5 -78.57 -5 -5 -69.5523 -5 -5 -78.7777 -5 -5 -78.9847 -5 -5 -79.1908 -5 -5 -79.3962 -5 -5 -79.6007 -5 -5 -79.8045 -5 -5 -80.0074 -5 -5 -69.8008 -5 -5 -80.2096 -5 -5 -80.411 -5 -5 -80.6116 -5 -5 -70.5327 -5 -5 -81.0104 -5 -5 -81.2087 -5 -5 -81.4062 -5 -5 -70.7722 -5 -5 -50.9263 -5 -5 -51.322 -5 -5 -52.4929 -5 -5 -53.2598 -5 -5 -53.6392 -5 -5 -54.0159 -5 -5 -54.3899 -5 -5 -43.3305 -5 -5 -57.2853 -5 -5 -57.9826 -5 -5 -58.3272 -5 -5 -43.7761 -5 -5 -67.4813 -5 -5 -67.7484 -5 -5 -69.0485 -5 -5 -50.5278 -5 -5 -70.291 -5 -5 -71.4818 -5 -5 -72.1836 -5 -5 -72.8775 -5 -5 -73.1071 -5 -5 -73.7906 -5 -5 -74.6898 -5 -5 -63.1861 -5 -5 -74.9125 -5 -5 -75.1343 -5 -5 -75.3553 -5 -5 -62.5714 -5 -5 -80.8114 -5 -5 -81.994 -5 -5 -88.1949 -5 -5 -64.679 -5 -5 -81.7989 -5 -5 -88.3651 -5 -5 -89.3725 -5 -5 -90.3569 -5 -5 -91.3188 -5 -5 -91.635 -5 -5 -91.7926 -5 -5 -64.9701 -5 -5 -92.7316 -5 -5 -93.0421 -5 -5 -93.1969 -5 -5 -65.2589 -5 -5 -93.9662 -5 -5 -94.2717 -5 -5 -94.424 -5 -5 -65.5451 -5 -5 -94.7278 -5 -5 -95.3317 -5 -5 -96.08 -5 -5 -96.8209 -5 -5 -97.1153 -5 -5 -97.262 -5 -5 -97.5547 -5 -5 -66.9401 -5 -5 -98.7143 -5 -5 -99.8565 -5 -5 -99.9981 -5 -5 -66.3893 -5 -5 -100.139 -5 -5 -100.281 -5 -5 -100.421 -5 -5 -66.6659 -5 -5 -101.953 -5 -5 -102.229 -5 -5 -102.366 -5 -5 -102.503 -5 -5 -102.64 -5 -5 -102.776 -5 -5 -102.913 -5 -5 -47.6612 -5 -5 -103.32 -5 -5 -103.456 -5 -5 -103.726 -5 -5 -42.8821 -5 -5 -103.861 -5 -5 -103.995 -5 -5 -104.263 -5 -5 -45.9623 -5 -5 -104.397 -5 -5 -104.531 -5 -5 -104.664 -5 -5 -104.797 -5 -5 -104.93 -5 -5 -105.195 -5 -5 -105.328 -5 -5 -45.5306 -5 -5 -105.46 -5 -5 -105.591 -5 -5 -105.723 -5 -5 -46.3912 -5 -5 -105.986 -5 -5 -106.117 -5 -5 -106.247 -5 -5 -47.2406 -5 -5 -106.378 -5 -5 -106.639 -5 -5 -106.769 -5 -5 -107.028 -5 -5 -107.157 -5 -5 -107.286 -5 -5 -107.415 -5 -5 -45.0962 -5 -5 -107.673 -5 -5 -107.801 -5 -5 -107.929 -5 -5 -42.4309 -5 -5 -108.057 -5 -5 -108.313 -5 -5 -108.44 -5 -5 -44.6589 -5 -5 -108.567 -5 -5 -108.694 -5 -5 -108.821 -5 -5 -102.091 -5 -5 -108.948 -5 -5 -109.201 -5 -5 -109.327 -5 -5 -60.9905 -5 -5 -109.579 -5 -5 -109.705 -5 -5 -109.83 -5 -5 -61.9467 -5 -5 -109.955 -5 -5 -110.205 -5 -5 -110.33 -5 -5 -69.3015 -5 -5 -110.455 -5 -5 -110.579 -5 -5 -110.828 -5 -5 -110.952 -5 -5 -111.075 -5 -5 -111.323 -5 -5 -111.446 -5 -5 -58.6692 -5 -5 -111.569 -5 -5 -111.692 -5 -5 -111.938 -5 -5 -62.2604 -5 -5 -112.06 -5 -5 -112.183 -5 -5 -112.305 -5 -5 -59.3455 -5 -5 -112.427 -5 -5 -112.549 -5 -5 -112.671 -5 -5 -103.185 -5 -5 -112.914 -5 -5 -113.036 -5 -5 -113.157 -5 -5 -55.4958 -5 -5 -113.278 -5 -5 -113.399 -5 -5 -113.641 -5 -5 -62.88 -5 -5 -113.761 -5 -5 -113.882 -5 -5 -114.002 -5 -5 -55.859 -5 -5 -114.122 -5 -5 -114.362 -5 -5 -114.602 -5 -5 -114.722 -5 -5 -114.841 -5 -5 -114.96 -5 -5 -115.08 -5 -5 -64.0893 -5 -5 -115.199 -5 -5 -115.318 -5 -5 -115.437 -5 -5 -115.555 -5 -5 -115.674 -5 -5 -115.793 -5 -5 -115.911 -5 -5 -48.494 -5 -5 -116.03 -5 -5 -116.148 -5 -5 -116.385 -5 -5 -116.503 -5 -5 -116.621 -5 -5 -116.857 -5 -5 -116.975 -5 -5 -48.079 -5 -5 -117.093 -5 -5 -117.211 -5 -5 -117.329 -5 -5 -60.6667 -5 -5 -117.799 -5 -5 -117.917 -5 -5 -118.034 -5 -5 -55.1299 -5 -5 -118.151 -5 -5 -118.269 -5 -5 -118.386 -5 -5 -118.503 -5 -5 -118.62 -5 -5 -118.737 -5 -5 -118.854 -5 -5 -72.6471 -5 -5 -118.971 -5 -5 -119.088 -5 -5 -119.205 -5 -5 -60.3403 -5 -5 -119.322 -5 -5 -119.438 -5 -5 -119.555 -5 -5 -50.1265 -5 -5 -119.672 -5 -5 -119.788 -5 -5 -119.905 -5 -5 -106.898 -5 -5 -120.021 -5 -5 -120.138 -5 -5 -120.254 -5 -5 -48.9063 -5 -5 -120.37 -5 -5 -120.486 -5 -5 -120.603 -5 -5 -73.5636 -5 -5 -120.719 -5 -5 -120.835 -5 -5 -120.951 -5 -5 -51.715 -5 -5 -121.067 -5 -5 -121.183 -5 -5 -121.299 -5 -5 -121.415 -5 -5 -121.531 -5 -5 -121.647 -5 -5 -121.762 -5 -5 -74.2419 -5 -5 -121.878 -5 -5 -121.994 -5 -5 -122.109 -5 -5 -74.0167 -5 -5 -122.225 -5 -5 -122.341 -5 -5 -122.456 -5 -5 -56.9327 -5 -5 -122.572 -5 -5 -122.687 -5 -5 -122.803 -5 -5 -122.918 -5 -5 -123.033 -5 -5 -123.149 -5 -5 -123.264 -5 -5 -56.5775 -5 -5 -123.379 -5 -5 -123.494 -5 -5 -123.609 -5 -5 -81.6029 -5 -5 -123.84 -5 -5 -123.955 -5 -5 -124.3 -5 -5 -59.0087 -5 -5 -124.07 -5 -5 -124.185 -5 -5 -124.415 -5 -5 -124.53 -5 -5 -124.645 -5 -5 -124.759 -5 -5 -124.874 -5 -5 -76.0132 -5 -5 -124.989 -5 -5 -125.104 -5 -5 -125.219 -5 -5 -125.333 -5 -5 -125.448 -5 -5 -125.563 -5 -5 -125.677 -5 -5 -39.6649 -5 -5 -125.792 -5 -5 -125.907 -5 -5 -126.021 -5 -5 -126.136 -5 -5 -126.25 -5 -5 -126.365 -5 -5 -126.48 -5 -5 -82.1885 -5 -5 -126.594 -5 -5 -126.709 -5 -5 -126.823 -5 -5 -101.539 -5 -5 -126.937 -5 -5 -127.052 -5 -5 -127.166 -5 -5 -39.1941 -5 -5 -127.281 -5 -5 -127.395 -5 -5 -127.51 -5 -5 -127.624 -5 -5 -127.738 -5 -5 -127.853 -5 -5 -128.081 -5 -5 -89.5382 -5 -5 -128.196 -5 -5 -128.31 -5 -5 -128.424 -5 -5 -105.855 -5 -5 -128.538 -5 -5 -128.653 -5 -5 -128.767 -5 -5 -38.7205 -5 -5 -128.881 -5 -5 -128.996 -5 -5 -129.11 -5 -5 -129.224 -5 -5 -129.338 -5 -5 -129.453 -5 -5 -129.567 -5 -5 -60.0112 -5 -5 -129.681 -5 -5 -129.795 -5 -5 -129.91 -5 -5 -91.0007 -5 -5 -130.024 -5 -5 -130.138 -5 -5 -130.252 -5 -5 -40.5981 -5 -5 -130.367 -5 -5 -130.481 -5 -5 -130.595 -5 -5 -130.709 -5 -5 -130.824 -5 -5 -130.938 -5 -5 -131.052 -5 -5 -92.1068 -5 -5 -131.166 -5 -5 -131.281 -5 -5 -131.395 -5 -5 -131.509 -5 -5 -131.623 -5 -5 -131.738 -5 -5 -131.852 -5 -5 -63.4896 -5 -5 -131.966 -5 -5 -132.081 -5 -5 -132.195 -5 -5 -132.309 -5 -5 -132.424 -5 -5 -132.538 -5 -5 -132.653 -5 -5 -66.1103 -5 -5 -132.882 -5 -5 -132.996 -5 -5 -133.11 -5 -5 -114.242 -5 -5 -133.225 -5 -5 -133.339 -5 -5 -133.454 -5 -5 -41.9769 -5 -5 -133.568 -5 -5 -133.683 -5 -5 -133.798 -5 -5 -133.912 -5 -5 -134.027 -5 -5 -134.141 -5 -5 -134.256 -5 -5 -92.2635 -5 -5 -134.371 -5 -5 -134.485 -5 -5 -134.6 -5 -5 -117.564 -5 -5 -134.715 -5 -5 -134.83 -5 -5 -134.944 -5 -5 -41.5201 -5 -5 -135.059 -5 -5 -135.174 -5 -5 -135.289 -5 -5 -135.404 -5 -5 -135.519 -5 -5 -135.634 -5 -5 -135.979 -5 -5 -89.7032 -5 -5 -136.209 -5 -5 -136.439 -5 -5 -136.67 -5 -5 -94.1191 -5 -5 -136.9 -5 -5 -137.131 -5 -5 -137.477 -5 -5 -41.0605 -5 -5 -135.749 -5 -5 -136.094 -5 -5 -136.324 -5 -5 -136.554 -5 -5 -136.785 -5 -5 -137.016 -5 -5 -137.246 -5 -5 -94.5761 -5 -5 -137.362 -5 -5 -137.593 -5 -5 -137.708 -5 -5 -123.725 -5 -5 -137.824 -5 -5 -137.94 -5 -5 -138.055 -5 -5 -40.1329 -5 -5 -138.171 -5 -5 -138.403 -5 -5 -138.519 -5 -5 -138.634 -5 -5 -138.75 -5 -5 -138.866 -5 -5 -138.982 -5 -5 -93.3513 -5 -5 -139.099 -5 -5 -139.331 -5 -5 -139.447 -5 -5 -95.1812 -5 -5 -139.563 -5 -5 -139.68 -5 -5 -139.796 -5 -5 -44.2189 -5 -5 -139.912 -5 -5 -140.029 -5 -5 -140.145 -5 -5 -140.262 -5 -5 -140.379 -5 -5 -140.495 -5 -5 -140.612 -5 -5 -91.477 -5 -5 -140.846 -5 -5 -140.963 -5 -5 -141.079 -5 -5 -127.967 -5 -5 -141.196 -5 -5 -141.314 -5 -5 -141.431 -5 -5 -67.2119 -5 -5 -141.548 -5 -5 -141.665 -5 -5 -141.782 -5 -5 -141.9 -5 -5 -142.017 -5 -5 -142.135 -5 -5 -142.252 -5 -5 -100.562 -5 -5 -142.37 -5 -5 -142.487 -5 -5 -142.605 -5 -5 -92.887 -5 -5 -142.723 -5 -5 -142.841 -5 -5 -142.958 -5 -5 -74.4663 -5 -5 -143.076 -5 -5 -143.194 -5 -5 -143.313 -5 -5 -143.431 -5 -5 -143.549 -5 -5 -143.667 -5 -5 -143.786 -5 -5 -93.8129 -5 -5 -143.904 -5 -5 -144.022 -5 -5 -144.26 -5 -5 -144.378 -5 -5 -144.497 -5 -5 -144.616 -5 -5 -144.735 -5 -5 -89.2062 -5 -5 -144.854 -5 -5 -144.973 -5 -5 -145.093 -5 -5 -145.212 -5 -5 -145.332 -5 -5 -145.571 -5 -5 -145.691 -5 -5 -100.842 -5 -5 -145.812 -5 -5 -145.932 -5 -5 -146.173 -5 -5 -135.864 -5 -5 -146.293 -5 -5 -146.414 -5 -5 -146.535 -5 -5 -68.7931 -5 -5 -146.656 -5 -5 -146.898 -5 -5 -147.02 -5 -5 -147.141 -5 -5 -147.263 -5 -5 -147.385 -5 -5 -147.507 -5 -5 -100.702 -5 -5 -147.629 -5 -5 -147.751 -5 -5 -147.874 -5 -5 -138.287 -5 -5 -147.996 -5 -5 -148.119 -5 -5 -148.242 -5 -5 -101.121 -5 -5 -148.365 -5 -5 -148.488 -5 -5 -148.611 -5 -5 -148.735 -5 -5 -148.859 -5 -5 -148.982 -5 -5 -149.106 -5 -5 -100.982 -5 -5 -149.231 -5 -5 -149.355 -5 -5 -149.479 -5 -5 -140.729 -5 -5 -149.604 -5 -5 -149.729 -5 -5 -149.854 -5 -5 -71.2461 -5 -5 -149.979 -5 -5 -150.23 -5 -5 -150.355 -5 -5 -150.481 -5 -5 -150.607 -5 -5 -150.733 -5 -5 -150.86 -5 -5 -101.261 -5 -5 -150.986 -5 -5 -151.113 -5 -5 -151.24 -5 -5 -151.367 -5 -5 -151.494 -5 -5 -151.622 -5 -5 -151.749 -5 -5 -103.591 -5 -5 -151.877 -5 -5 -152.005 -5 -5 -152.133 -5 -5 -144.141 -5 -5 -152.262 -5 -5 -152.39 -5 -5 -152.519 -5 -5 -72.4158 -5 -5 -152.648 -5 -5 -152.906 -5 -5 -153.036 -5 -5 -153.166 -5 -5 -153.296 -5 -5 -153.426 -5 -5 -153.556 -5 -5 -101.4 -5 -5 -153.687 -5 -5 -153.818 -5 -5 -153.949 -5 -5 -154.08 -5 -5 -154.211 -5 -5 -154.343 -5 -5 -154.475 -5 -5 -117.446 -5 -5 -154.739 -5 -5 -154.871 -5 -5 -155.004 -5 -5 -155.137 -5 -5 -155.27 -5 -5 -155.404 -5 -5 -155.537 -5 -5 -101.677 -5 -5 -155.805 -5 -5 -155.939 -5 -5 -156.074 -5 -5 -156.208 -5 -5 -156.343 -5 -5 -156.479 -5 -5 -156.75 -5 -5 -101.815 -5 -5 -156.885 -5 -5 -157.022 -5 -5 -157.294 -5 -5 -150.104 -5 -5 -157.431 -5 -5 -157.568 -5 -5 -157.706 -5 -5 -105.063 -5 -5 -157.843 -5 -5 -158.119 -5 -5 -158.257 -5 -5 -158.396 -5 -5 -158.535 -5 -5 -158.674 -5 -5 -158.813 -5 -5 -132.767 -5 -5 -158.952 -5 -5 -159.092 -5 -5 -159.232 -5 -5 -152.777 -5 -5 -159.372 -5 -5 -159.513 -5 -5 -159.654 -5 -5 -106.508 -5 -5 -159.795 -5 -5 -159.936 -5 -5 -160.078 -5 -5 -160.22 -5 -5 -160.362 -5 -5 -160.504 -5 -5 -160.647 -5 -5 -103.049 -5 -5 -160.79 -5 -5 -160.933 -5 -5 -161.076 -5 -5 -139.215 -5 -5 -161.22 -5 -5 -161.364 -5 -5 -161.508 -5 -5 -107.544 -5 -5 -161.653 -5 -5 -161.798 -5 -5 -161.943 -5 -5 -156.614 -5 -5 -162.088 -5 -5 -162.234 -5 -5 -162.38 -5 -5 -108.185 -5 -5 -162.526 -5 -5 -162.819 -5 -5 -162.966 -5 -5 -163.113 -5 -5 -163.261 -5 -5 -163.409 -5 -5 -163.557 -5 -5 -145.452 -5 -5 -163.705 -5 -5 -163.854 -5 -5 -164.003 -5 -5 -146.777 -5 -5 -164.153 -5 -5 -164.302 -5 -5 -164.452 -5 -5 -109.453 -5 -5 -164.602 -5 -5 -164.753 -5 -5 -164.904 -5 -5 -165.055 -5 -5 -165.206 -5 -5 -165.358 -5 -5 -165.51 -5 -5 -104.129 -5 -5 -165.815 -5 -5 -165.968 -5 -5 -166.121 -5 -5 -157.981 -5 -5 -166.275 -5 -5 -166.429 -5 -5 -166.583 -5 -5 -110.08 -5 -5 -166.892 -5 -5 -167.047 -5 -5 -167.202 -5 -5 -167.358 -5 -5 -167.514 -5 -5 -167.827 -5 -5 -167.984 -5 -5 -154.607 -5 -5 -168.141 -5 -5 -168.299 -5 -5 -168.457 -5 -5 -155.671 -5 -5 -168.615 -5 -5 -168.774 -5 -5 -168.933 -5 -5 -110.704 -5 -5 -169.093 -5 -5 -169.254 -5 -5 -169.415 -5 -5 -169.577 -5 -5 -169.739 -5 -5 -169.902 -5 -5 -170.066 -5 -5 -109.075 -5 -5 -170.231 -5 -5 -170.395 -5 -5 -170.561 -5 -5 -166.737 -5 -5 -170.727 -5 -5 -170.894 -5 -5 -171.062 -5 -5 -111.199 -5 -5 -171.23 -5 -5 -171.399 -5 -5 -171.568 -5 -5 -171.909 -5 -5 -172.081 -5 -5 -172.253 -5 -5 -172.426 -5 -5 -117.682 -5 -5 -172.774 -5 -5 -172.948 -5 -5 -173.124 -5 -5 -162.672 -5 -5 -173.3 -5 -5 -173.477 -5 -5 -173.655 -5 -5 -111.815 -5 -5 -173.833 -5 -5 -174.192 -5 -5 -174.372 -5 -5 -174.554 -5 -5 -174.735 -5 -5 -175.101 -5 -5 -175.285 -5 -5 -165.662 -5 -5 -175.47 -5 -5 -175.655 -5 -5 -175.842 -5 -5 -176.029 -5 -5 -176.405 -5 -5 -176.594 -5 -5 -176.784 -5 -5 -167.67 -5 -5 -176.974 -5 -5 -177.166 -5 -5 -177.358 -5 -5 -174.012 -5 -5 -177.551 -5 -5 -177.744 -5 -5 -177.939 -5 -5 -112.793 -5 -5 -178.134 -5 -5 -178.33 -5 -5 -178.526 -5 -5 -178.724 -5 -5 -178.922 -5 -5 -179.121 -5 -5 -179.321 -5 -5 -157.158 -5 -5 -179.521 -5 -5 -179.723 -5 -5 -179.925 -5 -5 -172.599 -5 -5 -180.128 -5 -5 -180.332 -5 -5 -180.536 -5 -5 -113.52 -5 -5 -180.742 -5 -5 -181.155 -5 -5 -181.362 -5 -5 -181.571 -5 -5 -181.99 -5 -5 -182.201 -5 -5 -182.413 -5 -5 -176.216 -5 -5 -182.626 -5 -5 -182.839 -5 -5 -183.053 -5 -5 -180.948 -5 -5 -183.269 -5 -5 -183.484 -5 -5 -183.701 -5 -5 -114.482 -5 -5 -183.919 -5 -5 -184.137 -5 -5 -184.357 -5 -5 -184.577 -5 -5 -184.798 -5 -5 -185.019 -5 -5 -185.242 -5 -5 -171.739 -5 -5 -185.466 -5 -5 -185.915 -5 -5 -186.141 -5 -5 -181.78 -5 -5 -186.368 -5 -5 -186.596 -5 -5 -186.825 -5 -5 -116.739 -5 -5 -187.285 -5 -5 -187.516 -5 -5 -187.748 -5 -5 -187.981 -5 -5 -188.215 -5 -5 -188.45 -5 -5 -188.685 -5 -5 -185.69 -5 -5 -188.922 -5 -5 -189.399 -5 -5 -189.64 -5 -5 -189.159 -5 -5 -189.884 -5 -5 -190.13 -5 -5 -190.379 -5 -5 -146.052 -5 -5 -190.63 -5 -5 -190.883 -5 -5 -191.396 -5 -5 -191.138 -5 -5 -191.918 -5 -5 -192.182 -5 -5 -192.449 -5 -5 -187.054 -5 -5 -192.991 -5 -5 -193.265 -5 -5 -193.541 -5 -5 -192.719 -5 -5 -193.82 -5 -5 -194.102 -5 -5 -194.385 -5 -5 -174.918 -5 -5 -194.671 -5 -5 -194.96 -5 -5 -195.251 -5 -5 -195.545 -5 -5 -195.841 -5 -5 -196.139 -5 -5 -196.44 -5 -5 -197.358 -5 -5 -196.744 -5 -5 -197.05 -5 -5 -197.669 -5 -5 -199.589 -5 -5 -197.983 -5 -5 -198.299 -5 -5 -198.618 -5 -5 -191.655 -5 -5 -198.939 -5 -5 -199.263 -5 -5 -199.918 -5 -5 -200.25 -5 -5 -200.584 -5 -5 -200.92 -5 -5 -201.26 -5 -5 -206.668 -5 -5 -201.602 -5 -5 -201.946 -5 -5 -202.293 -5 -5 -207.435 -5 -5 -202.643 -5 -5 -202.996 -5 -5 -203.351 -5 -5 -209.8 -5 -5 -203.709 -5 -5 -204.069 -5 -5 -204.432 -5 -5 -204.798 -5 -5 -205.167 -5 -5 -205.538 -5 -5 -205.912 -5 -5 -218.864 -5 -5 -206.288 -5 -5 -207.05 -5 -5 -207.822 -5 -5 -208.212 -5 -5 -208.605 -5 -5 -209.001 -5 -5 -209.399 -5 -5 -220.26 -5 -5 -210.204 -5 -5 -210.611 -5 -5 -211.02 -5 -5 -211.433 -5 -5 -211.848 -5 -5 -212.265 -5 -5 -212.686 -5 -5 -219.792 -5 -5 -213.109 -5 -5 -213.535 -5 -5 -213.964 -5 -5 -219.327 -5 -5 -214.395 -5 -5 -214.83 -5 -5 -215.267 -5 -5 -221.204 -5 -5 -215.707 -5 -5 -216.15 -5 -5 -216.595 -5 -5 -217.043 -5 -5 -217.494 -5 -5 -217.948 -5 -5 -218.405 -5 -5 -220.73 -5 
        </DataArray>
      </Points>
      <PointData Scalars="Radius">
        <DataArray type="Float32" Name="Radius" NumberOfComponents="1" format="ascii">
0.475 0.475 0.475 0.475 0.475 0.475 0.475 0.475 0.475 0.475 0.475 0.475 0.475 0.475 0.475 0.475 0.475 0.475 0.475 0.475 0.475 0.475 0.475 0.475 0.475 0.475 0.475 0.475 0.475 0.475 0.475 0.475 0.475 0.475 0.475 0.475 0.475 0.475 0.475 0.475 0.475 0.475 0.475 0.475 0.475 0.475 0.475 0.475 0.475 0.475 0.475 0.475 0.475 0.475 0.475 0.475 0.475 0.475 0.475 0.475 0.475 0.475 0.475 0.475 0.475 0.475 0.475 0.475 0.475 0.475 0.475 0.475 0.475 0.475 0.475 0.475 0.475 0.475 0.475 0.475 0.475 0.475 0.475 0.475 0.475 0.475 0.475 0.475 0.475 0.475 0.475 0.475 0.475 0.475 0.475 0.475 0.475 0.475 0.475 0.475 0.475 0.475 0.475 0.475 0.475 0.475 0.475 0.475 0.475 0.475 0.475 0.475 0.475 0.475 0.475 0.475 0.475 0.475 0.475 0.475 0.475 0.475 0.475 0.475 0.475 0.475 0.475 0.475 0.475 0.475 0.475 0.475 0.475 0.475 0.475 0.475 0.475 0.475 0.475 0.475 0.475 0.475 0.475 0.475 0.475 0.475 0.475 0.475 0.475 0.475 0.475 0.475 0.475 0.475 0.475 0.475 0.475 0.475 0.475 0.475 0.475 0.475 0.475 0.475 0.475 0.475 0.475 0.475 0.475 0.475 0.475 0.475 0.475 0.475 0.475 0.475 0.475 0.475 0.475 0.475 0.475 0.475 0.475 0.475 0.475 0.475 0.475 0.475 0.475 0.475 0.475 0.475 0.475 0.475 0.475 0.475 0.475 0.475 0.475 0.475 0.475 0.475 0.475 0.475 0.475 0.475 0.475 0.475 0.475 0.475 0.475 0.475 0.475 0.475 0.475 0.475 0.475 0.475 0.475 0.475 0.475 0.475 0.475 0.475 0.475 0.475 0.475 0.475 0.475 0.475 0.475 0.475 0.475 0.475 0.475 0.475 0.475 0.475 0.475 0.475 0.475 0.475 0.475 0.475 0.475 0.475 0.475 0.475 0.475 0.475 0.475 0.475 0.475 0.475 0.475 0.475 0.475 0.475 0.475 0.475 0.475 0.475 0.475 0.475 0.475 0.475 0.475 0.475 0.475 0.475 0.475 0.475 0.475 0.475 0.475 0.475 0.475 0.475 0.475 0.475 0.475 0.475 0.475 0.475 0.475 0.475 0.475 0.475 0.475 0.475 0.475 0.475 0.475 0.475 0.475 0.475 0.475 0.475 0.475 0.475 0.475 0.475 0.475 0.475 0.475 0.475 0.475 0.475 0.475 0.475 0.475 0.475 0.475 0.475 0.475 0.475 0.475 0.475 0.475 0.475 0.475 0.475 0.475 0.475 0.475 0.475 0.475 0.475 0.475 0.475 0.475 0.475 0.475 0.475 0.475 0.475 0.475 0.475 0.475 0.475 0.475 0.475 0.475 0.475 0.475 0.475 0.475 0.475 0.475 0.475 0.475 0.475 0.475 0.475 0.475 0.475 0.475 0.475 0.475 0.475 0.475 0.475 0.475 0.475 0.475 0.475 0.475 0.475 0.475 0.475 0.475 0.475 0.475 0.475 0.475 0.475 0.475 0.475 0.475 0.475 0.475 0.475 0.475 0.475 0.475 0.475 0.475 0.475 0.475 0.475 0.475 0.475 0.475 0.475 0.475 0.475 0.475 0.475 0.475 0.475 0.475 0.475 0.475 0.475 0.475 0.475 0.475 0.475 0.475 0.475 0.475 0.475 0.475 0.475 0.475 0.475 0.475 0.475 0.475 0.475 0.475 0.475 0.475 0.475 0.475 0.475 0.475 0.475 0.475 0.475 0.475 0.475 0.475 0.475 0.475 0.475 0.475 0.475 0.475 0.475 0.475 0.475 0.475 0.475 0.475 0.475 0.475 0.475 0.475 0.475 0.475 0.475 0.475 0.475 0.475 0.475 0.475 0.475 0.475 0.475 0.475 0.475 0.475 0.475 0.475 0.475 0.475 0.475 0.475 0.475 0.475 0.475 0.475 0.475 0.475 0.475 0.475 0.475 0.475 0.475 0.475 0.475 0.475 0.475 0.475 0.475 0.475 0.475 0.475 0.475 0.475 0.475 0.475 0.475 0.475 0.475 0.475 0.475 0.475 0.475 0.475 0.475 0.475 0.475 0.475 0.475 0.475 0.475 0.475 0.475 0.475 0.475 0.475 0.475 0.475 0.475 0.475 0.475 0.475 0.475 0.475 0.475 0.475 0.475 0.475 0.475 0.475 0.475 0.475 0.475 0.475 0.475 0.475 0.475 0.475 0.475 0.475 0.475 0.475 0.475 0.475 0.475 0.475 0.475 0.475 0.475 0.475 0.475 0.475 0.475 0.475 0.475 0.475 0.475 0.475 0.475 0.475 0.475 0.475 0.475 0.475 0.475 0.475 0.475 0.475 0.475 0.475 0.475 0.475 0.475 0.475 0.475 0.475 0.475 0.475 0.475 0.475 0.475 0.475 0.475 0.475 0.475 0.475 0.475 0.475 0.475 0.475 0.475 0.475 0.475 0.475 0.475 0.475 0.475 0.475 0.475 0.475 0.475 0.475 0.475 0.475 0.475 0.475 0.475 0.475 0.475 0.475 0.475 0.475 0.475 0.475 0.475 0.475 0.475 0.475 0.475 0.475 0.475 0.475 0.475 0.475 0.475 0.475 0.475 0.475 0.475 0.475 0.475 0.475 0.475 0.475 0.475 0.475 0.475 0.475 0.475 0.475 0.475 0.475 0.475 0.475 0.475 0.475 0.475 0.475 0.475 0.475 0.475 0.475 0.475 0.475 0.475 0.475 0.475 0.475 0.475 0.475 0.475 0.475 0.475 0.475 0.475 0.475 0.475 0.475 0.475 0.475 0.475 0.475 0.475 0.475 0.475 0.475 0.475 0.475 0.475 0.475 0.475 0.475 0.475 0.475 0.475 0.475 0.475 0.475 0.475 0.475 0.475 0.475 0.475 0.475 0.475 0.475 0.475 0.475 0.475 0.475 0.475 0.475 0.475 0.475 0.475 0.475 0.475 0.475 0.475 0.475 0.475 0.475 0.475 0.475 0.475 0.475 0.475 0.475 0.475 0.475 0.475 0.475 0.475 0.475 0.475 0.475 0.475 0.475 0.475 0.475 0.475 0.475 0.475 0.475 0.475 0.475 0.475 0.475 0.475 0.475 0.475 0.475 0.475 0.475 0.475 0.475 0.475 0.475 0.475 0.475 0.475 0.475 0.475 0.475 0.475 0.475 0.475 0.475 0.475 0.475 0.475 0.475 0.475 0.475 0.475 0.475 0.475 0.475 0.475 0.475 0.475 0.475 0.475 0.475 0.475 0.475 0.475 0.475 0.475 0.475 0.475 0.475 0.475 0.475 0.475 0.475 0.475 0.475 0.475 0.475 0.475 0.475 0.475 0.475 0.475 0.475 0.475 0.475 0.475 0.475 0.475 0.475 0.475 0.475 0.475 0.475 0.475 0.475 0.475 0.475 0.475 0.475 0.475 0.475 0.475 0.475 0.475 0.475 0.475 0.475 0.475 0.475 0.475 0.475 0.475 0.475 0.475 0.475 0.475 0.475 0.475 0.475 0.475 0.475 0.475 0.475 0.475 0.475 0.475 0.475 0.475 0.475 0.475 0.475 0.475 0.475 0.475 0.475 0.475 0.475 0.475 0.475 0.475 0.475 0.475 0.475 0.475 0.475 0.475 0.475 0.475 0.475 0.475 0.475 0.475 0.475 0.475 0.475 0.475 0.475 0.475 0.475 0.475 0.475 0.475 0.475 0.475 0.475 0.475 0.475 0.475 0.475 0.475 0.475 0.475 0.475 0.475 0.475 0.475 0.475 0.475 0.475 0.475 0.475 0.475 0.475 0.475 0.475 0.475 0.475 0.475 0.475 0.475 0.475 0.475 0.475 0.475 0.475 0.475 0.475 0.475 0.475 0.475 0.475 0.475 0.475 0.475 0.475 0.475 0.475 0.475 0.475 0.475 0.475 0.475 0.475 0.475 0.475 0.475 0.475 0.475 0.475 0.475 0.475 0.475 0.475 0.475 0.475 0.475 0.475 0.475 0.475 0.475 0.475 0.475 0.475 0.475 0.475 0.475 0.475 0.475 0.475 0.475 0.475 0.475 0.475 0.475 0.475 0.475 0.475 0.475 0.475 0.475 0.475 0.475 0.475 0.475 0.475 0.475 0.475 0.475 0.475 0.475 0.475 0.475 0.475 0.475 0.475 0.475 0.475 0.475 0.475 0.475 0.475 0.475 0.475 0.475 0.475 0.475 0.475 0.475 0.475 0.475 0.475 0.475 0.475 0.475 0.475 0.475 0.475 0.475 0.475 0.475 
        </DataArray>
        <DataArray type="Float32" Name="Velocity" NumberOfComponents="3" format="ascii">