<?xml version="1.0"?>
<VTKFile type="PolyData" version="0.1" byte_order="LittleEndian">
  <PolyData>
    <Piece NumberOfPoints="200" NumberOfVerts="0" NumberOfLines="0" NumberOfStrips="0" NumberOfPolys="0">
      <Points>
        <DataArray type="Float32" Name="Position" NumberOfComponents="3" format="ascii">
-2.4 -5.03987 -2.4 -2.4 -5.03987 -1.2 -2.4 -5.03987 0 -2.4 -5.03987 1.2 -2.4 -5.03987 2.4 -1.2 -5.03987 -2.4 -1.2 -5.03987 -1.2 -1.2 -5.03987 0 -1.2 -5.03987 1.2 -1.2 -5.03987 2.4 0 -5.03987 -2.4 0 -5.03987 -1.2 0 -5.03987 0 0 -5.03987 1.2 0 -5.03987 2.4 1.2 -5.03987 -2.4 1.2 -5.03987 -1.2 1.2 -5.03987 0 1.2 -5.03987 1.2 1.2 -5.03987 2.4 2.4 -5.03987 -2.4 2.4 -5.03987 -1.2 2.4 -5.03987 0 2.4 -5.03987 1.2 2.4 -5.03987 2.4 -2.4 -4.87322 -2.4 -2.4 -4.87322 -1.2 -2.4 -4.87322 0 -2.4 -4.87322 1.2 -2.4 -4.87322 2.4 -1.2 -4.87322 -2.4 -1.2 -4.87322 -1.2 -1.2 -4.87322 0 -1.2 -4.87322 1.2 -1.2 -4.87322 2.4 0 -4.87322 -2.4 0 -4.87322 -1.2 0 -4.87322 0 0 -4.87322 1.2 0 -4.87322 2.4 1.2 -4.87322 -2.4 1.2 -4.87322 -1.2 1.2 -4.87322 0 1.2 -4.87322 1.2 1.2 -4.87322 2.4 2.4 -4.87322 -2.4 2.4 -4.87322 -1.2 2.4 -4.87322 0 2.4 -4.87322 1.2 2.4 -4.87322 2.4 -2.4 -4.72097 -2.4 -2.4 -4.72097 -1.2 -2.4 -4.72097 0 -2.4 -4.72097 1.2 -2.4 -4.72097 2.4 -1.2 -4.72097 -2.4 -1.2 -4.72097 -1.2 -1.2 -4.72097 0 -1.2 -4.72097 1.2 -1.2 -4.72097 2.4 0 -4.72097 -2.4 0 -4.72097 -1.2 0 -4.72097 0 0 -4.72097 1.2 0 -4.72097 2.4 1.2 -4.72097 -2.4 1.2 -4.72097 -1.2 1.2 -4.72097 0 1.2 -4.72097 1.2 1.2 -4.72097 2.4 2.4 -4.72097 -2.4 2.4 -4.72097 -1.2 2.4 -4.72097 0 2.4 -4.72097 1.2 2.4 -4.72097 2.4 -2.4 -4.53511 -2.4 -2.4 -4.53511 -1.2 -2.4 -4.53511 0 -2.4 -4.53511 1.2 -2.4 -4.53511 2.4 -1.2 -4.53511 -2.4 -1.2 -4.53511 -1.2 -1.2 -4.53511 0 -1.2 -4.53511 1.2 -1.2 -4.53511 2.4 0 -4.53511 -2.4 0 -4.53511 -1.2 0 -4.53511 0 0 -4.53511 1.2 0 -4.53511 2.4 1.2 -4.53511 -2.4 1.2 -4.53511 -1.2 1.2 -4.53511 0 1.2 -4.53511 1.2 1.2 -4.53511 2.4 2.4 -4.53511 -2.4 2.4 -4.53511 -1.2 2.4 -4.53511 0 2.4 -4.53511 1.2 2.4 -4.53511 2.4 -2.4 -4.31266 -2.4 -2.4 -4.31266 -1.2 -2.4 -4.31266 0 -2.4 -4.31266 1.2 -2.4 -4.31266 2.4 -1.2 -4.31266 -2.4 -1.2 -4.31266 -1.2 -1.2 -4.31266 0 -1.2 -4.31266 1.2 -1.2 -4.31266 2.4 0 -4.31266 -2.4 0 -4.31266 -1.2 0 -4.31266 0 0 -4.31266 1.2 0 -4.31266 2.4 1.2 -4.31266 -2.4 1.2 -4.31266 -1.2 1.2 -4.31266 0 1.2 -4.31266 1.2 1.2 -4.31266 2.4 2.4 -4.31266 -2.4 2.4 -4.31266 -1.2 2.4 -4.31266 0 2.4 -4.31266 1.2 2.4 -4.31266 2.4 -2.4 -4.06355 -2.4 -2.4 -4.06355 -1.2 -2.4 -4.06355 0 -2.4 -4.06355 1.2 -2.4 -4.06355 2.4 -1.2 -4.06355 -2.4 -1.2 -4.06355 -1.2 -1.2 -4.06355 0 -1.2 -4.06355 1.2 -1.2 -4.06355 2.4 0 -4.06355 -2.4 0 -4.06355 -1.2 0 -4.06355 0 0 -4.06355 1.2 0 -4.06355 2.4 1.2 -4.06355 -2.4 1.2 -4.06355 -1.2 1.2 -4.06355 0 1.2 -4.06355 1.2 1.2 -4.06355 2.4 2.4 -4.06355 -2.4 2.4 -4.06355 -1.2 2.4 -4.06355 0 2.4 -4.06355 1.2 2.4 -4.06355 2.4 -2.4 -3.71085 -2.4 -2.4 -3.71085 -1.2 -2.4 -3.71085 0 -2.4 -3.71085 1.2 -2.4 -3.71085 2.4 -1.2 -3.71085 -2.4 -1.2 -3.71085 -1.2 -1.2 -3.71085 0 -1.2 -3.71085 1.2 -1.2 -3.71085 2.4 0 -3.71085 -2.4 0 -3.71085 -1.2 0 -3.71085 0 0 -3.71085 1.2 0 -3.71085 2.4 1.2 -3.71085 -2.4 1.2 -3.71085 -1.2 1.2 -3.71085 0 1.2 -3.71085 1.2 1.2 -3.71085 2.4 2.4 -3.71085 -2.4 2.4 -3.71085 -1.2 2.4 -3.71085 0 2.4 -3.71085 1.2 2.4 -3.71085 2.4 -2.4 -3.26051 -2.4 -2.4 -3.26051 -1.2 -2.4 -3.26051 0 -2.4 -3.26051 1.2 -2.4 -3.26051 2.4 -1.2 -3.26051 -2.4 -1.2 -3.26051 -1.2 -1.2 -3.26051 0 -1.2 -3.26051 1.2 -1.2 -3.26051 2.4 0 -3.26051 -2.4 0 -3.26051 -1.2 0 -3.26051 0 0 -3.26051 1.2 0 -3.26051 2.4 1.2 -3.26051 -2.4 1.2 -3.26051 -1.2 1.2 -3.26051 0 1.2 -3.26051 1.2 1.2 -3.26051 2.4 2.4 -3.26051 -2.4 2.4 -3.26051 -1.2 2.4 -3.26051 0 2.4 -3.26051 1.2 2.4 -3.26051 2.4 
        </DataArray>
      </Points>
      <PointData Scalars="Radius">
        <DataArray type="Float32" Name="Radius" NumberOfComponents="1" format="ascii">
0.25 0.25 0.25 0.25 0.25 0.25 0.25 0.25 0.25 0.25 0.25 0.25 0.25 0.25 0.25 0.25 0.25 0.25 0.25 0.25 0.25 0.25 0.25 0.25 0.25 0.25 0.25 0.25 0.25 0.25 0.25 0.25 0.25 0.25 0.25 0.25 0.25 0.25 0.25 0.25 0.25 0.25 0.25 0.25 0.25 0.25 0.25 0.25 0.25 0.25 0.25 0.25 0.25 0.25 0.25 0.25 0.25 0.25 0.25 0.25 0.25 0.25 0.25 0.25 0.25 0.25 0.25 0.25 0.25 0.25 0.25 0.25 0.25 0.25 0.25 0.25 0.25 0.25 0.25 0.25 0.25 0.25 0.25 0.25 0.25 0.25 0.25 0.25 0.25 0.25 0.25 0.25 0.25 0.25 0.25 0.25 0.25 0.25 0.25 0.25 0.25 0.25 0.25 0.25 0.25 0.25 0.25 0.25 0.25 0.25 0.25 0.25 0.25 0.25 0.25 0.25 0.25 0.25 0.25 0.25 0.25 0.25 0.25 0.25 0.25 0.25 0.25 0.25 0.25 0.25 0.25 0.25 0.25 0.25 0.25 0.25 0.25 0.25 0.25 0.25 0.25 0.25 0.25 0.25 0.25 0.25 0.25 0.25 0.25 0.25 0.25 0.25 0.25 0.25 0.25 0.25 0.25 0.25 0.25 0.25 0.25 0.25 0.25 0.25 0.25 0.25 0.25 0.25 0.25 0.25 0.25 0.25 0.25 0.25 0.25 0.25 0.25 0.25 0.25 0.25 0.25 0.25 0.25 0.25 0.25 0.25 0.25 0.25 0.25 0.25 0.25 0.25 0.25 0.25 0.25 0.25 0.25 0.25 0.25 0.25 
        </DataArray>
        <DataArray type="Float32" Name="Velocity" NumberOfComponents="3" format="ascii">
0 -48.9998 0 0 -48.9998 0 0 -48.9998 0 0 -48.9998 0 0 -48.9998 0 0 -48.9998 0 0 -48.9998 0 0 -48.9998 0 0 -48.9998 0 0 -48.9998 0 0 -48.9998 0 0 -48.9998 0 0 -48.9998 0 0 -48.9998 0 0 -48.9998 0 0 -48.9998 0 0 -48.9998 0 0 -48.9998 0 0 -48.9998 0 0 -48.9998 0 0 -48.9998 0 0 -48.9998 0 0 -48.9998 0 0 -48.9998 0 0 -48.9998 0 0 -48.9998 0 0 -48.9998 0 0 -48.9998 0 0 -48.9998 0 0 -48.9998 0 0 -48.9998 0 0 -48.9998 0 0 -48.9998 0 0 -48.9998 0 0 -48.9998 0 0 -48.9998 0 0 -48.9998 0 0 -48.9998 0 0 -48.9998 0 0 -48.9998 0 0 -48.9998 0 0 -48.9998 0 0 -48.9998 0 0 -48.9998 0 0 -48.9998 0 0 -48.9998 0 0 -48.9998 0 0 -48.9998 0 0 -48.9998 0 0 -48.9998 0 0 -48.9998 0 0 -48.9998 0 0 -48.9998 0 0 -48.9998 0 0 -48.9998 0 0 -48.9998 0 0 -48.9998 0 0 -48.9998 0 0 -48.9998 0 0 -48.9998 0 0 -48.9998 0 0 -48.9998 0 0 -48.9998 0 0 -48.9998 0 0 -48.9998 0 0 -48.9998 0 0 -48.9998 0 0 -48.9998 0 0 -48.9998 0 0 -48.9998 0 0 -48.9998 0 0 -48.9998 0 0 -48.9998 0 0 -48.9998 0 0 -48.9998 0 0 -48.9998 0 0 -48.9998 0 0 -48.9998 0 0 -48.9998 0 0 -48.9998 0 0 -48.9998 0 0 -48.9998 0 0 -48.9998 0 0 -48.9998 0 0 -48.9998 0 0 -48.9998 0 0 -48.9998 0 0 -48.9998 0 0 -48.9998 0 0 -48.9998 0 0 -48.9998 0 0 -48.9998 0 0 -48.9998 0 0 -48.9998 0 0 -48.9998 0 0 -48.9998 0 0 -48.9998 0 0 -48.9998 0 0 -48.9998 0 0 -48.9998 0 0 -48.9998 0 0 -48.9998 0 0 -48.9998 0 0 -48.9998 0 0 -48.9998 0 0 -48.9998 0 0 -48.9998 0 0 -48.9998 0 0 -48.9998 0 0 -48.9998 0 0 -48.9998 0 0 -48.9998 0 0 -48.9998 0 0 -48.9998 0 0 -48.9998 0 0 -48.9998 0 0 -48.9998 0 0 -48.9998 0 0 -48.9998 0 0 -48.9998 0 0 -48.9998 0 0 -48.9998 0 0 -48.9998 0 0 -48.9998 0 0 -48.9998 0 0 -48.9998 0 0 -48.9998 0 0 -48.9998 0 0 -48.9998 0 0 -48.9998 0 0 -48.9998 0 0 -48.9998 0 0 -48.9998 0 0 -48.9998 0 0 -48.9998 0 0 -48.9998 0 0 -48.9998 0 0 -48.9998 0 0 -48.9998 0 0 -48.9998 0 0 -48.9998 0 0 -48.9998 0 0 -48.9998 0 0 -48.9998 0 0 -48.9998 0 0 -48.9998 0 0 -48.9998 0 0 -48.9998 0 0 -48.9998 0 0 -48.9998 0 0 -48.9998 0 0 -48.9998 0 0 -48.9998 0 0 -48.9998 0 0 -48.9998 0 0 -48.9998 0 0 -48.9998 0 0 -48.9998 0 0 -48.9998 0 0 -48.9998 0 0 -48.9998 0 0 -48.9998 0 0 -48.9998 0 0 -48.9998 0 0 -48.9998 0 0 -48.9998 0 0 -48.9998 0 0 -48.9998 0 0 -48.9998 0 0 -48.9998 0 0 -48.9998 0 0 -48.9998 0 0 -48.9998 0 0 -48.9998 0 0 -48.9998 0 0 -48.9998 0 0 -48.9998 0 0 -48.9998 0 0 -48.9998 0 0 -48.9998 0 0 -48.9998 0 0 -48.9998 0 0 -48.9998 0 0 -48.9998 0 0 -48.9998 0 0 -48.9998 0 0 -48.9998 0 0 -48.9998 0 0 -48.9998 0 0 -48.9998 0 0 -48.9998 0 0 -48.9998 0 0 -48.9998 0 0 -48.9998 0 0 -48.9998 0 0 -48.9998 0 0 -48.9998 0 0 -48.9998 0 0 -48.9998 0 0 -48.9998 0 
        </DataArray>
      </PointData>
    </Piece>
  </PolyData>
</VTKFile>
