<?xml version="1.0"?>
<VTKFile type="PolyData" version="0.1" byte_order="LittleEndian">
  <PolyData>
    <Piece NumberOfPoints="200" NumberOfVerts="0" NumberOfLines="0" NumberOfStrips="0" NumberOfPolys="0">
      <Points>
        <DataArray type="Float32" Name="Position" NumberOfComponents="3" format="ascii">
-2.4 -4.50488 -2.4 -2.4 -4.50488 -1.2 -2.4 -4.50488 0 -2.4 -4.50488 1.2 -2.4 -4.50488 2.4 -1.2 -4.50488 -2.4 -1.2 -4.50488 -1.2 -1.2 -4.50488 0 -1.2 -4.50488 1.2 -1.2 -4.50488 2.4 0 -4.50488 -2.4 0 -4.50488 -1.2 0 -4.50488 0 0 -4.50488 1.2 0 -4.50488 2.4 1.2 -4.50488 -2.4 1.2 -4.50488 -1.2 1.2 -4.50488 0 1.2 -4.50488 1.2 1.2 -4.50488 2.4 2.4 -4.50488 -2.4 2.4 -4.50488 -1.2 2.4 -4.50488 0 2.4 -4.50488 1.2 2.4 -4.50488 2.4 -2.4 -4.0144 -2.4 -2.4 -4.0144 -1.2 -2.4 -4.0144 0 -2.4 -4.0144 1.2 -2.4 -4.0144 2.4 -1.2 -4.0144 -2.4 -1.2 -4.0144 -1.2 -1.2 -4.0144 0 -1.2 -4.0144 1.2 -1.2 -4.0144 2.4 0 -4.0144 -2.4 0 -4.0144 -1.2 0 -4.0144 0 0 -4.0144 1.2 0 -4.0144 2.4 1.2 -4.0144 -2.4 1.2 -4.0144 -1.2 1.2 -4.0144 0 1.2 -4.0144 1.2 1.2 -4.0144 2.4 2.4 -4.0144 -2.4 2.4 -4.0144 -1.2 2.4 -4.0144 0 2.4 -4.0144 1.2 2.4 -4.0144 2.4 -2.4 -3.52328 -2.4 -2.4 -3.52328 -1.2 -2.4 -3.52328 0 -2.4 -3.52328 1.2 -2.4 -3.52328 2.4 -1.2 -3.52328 -2.4 -1.2 -3.52328 -1.2 -1.2 -3.52328 0 -1.2 -3.52328 1.2 -1.2 -3.52328 2.4 0 -3.52328 -2.4 0 -3.52328 -1.2 0 -3.52328 0 0 -3.52328 1.2 0 -3.52328 2.4 1.2 -3.52328 -2.4 1.2 -3.52328 -1.2 1.2 -3.52328 0 1.2 -3.52328 1.2 1.2 -3.52328 2.4 2.4 -3.52328 -2.4 2.4 -3.52328 -1.2 2.4 -3.52328 0 2.4 -3.52328 1.2 2.4 -3.52328 2.4 -2.4 -3.03111 -2.4 -2.4 -3.03111 -1.2 -2.4 -3.03111 0 -2.4 -3.03111 1.2 -2.4 -3.03111 2.4 -1.2 -3.03111 -2.4 -1.2 -3.03111 -1.2 -1.2 -3.03111 0 -1.2 -3.03111 1.2 -1.2 -3.03111 2.4 0 -3.03111 -2.4 0 -3.03111 -1.2 0 -3.03111 0 0 -3.03111 1.2 0 -3.03111 2.4 1.2 -3.03111 -2.4 1.2 -3.03111 -1.2 1.2 -3.03111 0 1.2 -3.03111 1.2 1.2 -3.03111 2.4 2.4 -3.03111 -2.4 2.4 -3.03111 -1.2 2.4 -3.03111 0 2.4 -3.03111 1.2 2.4 -3.03111 2.4 -2.4 -2.53757 -2.4 -2.4 -2.53757 -1.2 -2.4 -2.53757 0 -2.4 -2.53757 1.2 -2.4 -2.53757 2.4 -1.2 -2.53757 -2.4 -1.2 -2.53757 -1.2 -1.2 -2.53757 0 -1.2 -2.53757 1.2 -1.2 -2.53757 2.4 0 -2.53757 -2.4 0 -2.53757 -1.2 0 -2.53757 0 0 -2.53757 1.2 0 -2.53757 2.4 1.2 -2.53757 -2.4 1.2 -2.53757 -1.2 1.2 -2.53757 0 1.2 -2.53757 1.2 1.2 -2.53757 2.4 2.4 -2.53757 -2.4 2.4 -2.53757 -1.2 2.4 -2.53757 0 2.4 -2.53757 1.2 2.4 -2.53757 2.4 -2.4 -2.04238 -2.4 -2.4 -2.04238 -1.2 -2.4 -2.04238 0 -2.4 -2.04238 1.2 -2.4 -2.04238 2.4 -1.2 -2.04238 -2.4 -1.2 -2.04238 -1.2 -1.2 -2.04238 0 -1.2 -2.04238 1.2 -1.2 -2.04238 2.4 0 -2.04238 -2.4 0 -2.04238 -1.2 0 -2.04238 0 0 -2.04238 1.2 0 -2.04238 2.4 1.2 -2.04238 -2.4 1.2 -2.04238 -1.2 1.2 -2.04238 0 1.2 -2.04238 1.2 1.2 -2.04238 2.4 2.4 -2.04238 -2.4 2.4 -2.04238 -1.2 2.4 -2.04238 0 2.4 -2.04238 1.2 2.4 -2.04238 2.4 -2.4 -1.54536 -2.4 -2.4 -1.54536 -1.2 -2.4 -1.54536 0 -2.4 -1.54536 1.2 -2.4 -1.54536 2.4 -1.2 -1.54536 -2.4 -1.2 -1.54536 -1.2 -1.2 -1.54536 0 -1.2 -1.54536 1.2 -1.2 -1.54536 2.4 0 -1.54536 -2.4 0 -1.54536 -1.2 0 -1.54536 0 0 -1.54536 1.2 0 -1.54536 2.4 1.2 -1.54536 -2.4 1.2 -1.54536 -1.2 1.2 -1.54536 0 1.2 -1.54536 1.2 1.2 -1.54536 2.4 2.4 -1.54536 -2.4 2.4 -1.54536 -1.2 2.4 -1.54536 0 2.4 -1.54536 1.2 2.4 -1.54536 2.4 -2.4 -1.04636 -2.4 -2.4 -1.04636 -1.2 -2.4 -1.04636 0 -2.4 -1.04636 1.2 -2.4 -1.04636 2.4 -1.2 -1.04636 -2.4 -1.2 -1.04636 -1.2 -1.2 -1.04636 0 -1.2 -1.04636 1.2 -1.2 -1.04636 2.4 0 -1.04636 -2.4 0 -1.04636 -1.2 0 -1.04636 0 0 -1.04636 1.2 0 -1.04636 2.4 1.2 -1.04636 -2.4 1.2 -1.04636 -1.2 1.2 -1.04636 0 1.2 -1.04636 1.2 1.2 -1.04636 2.4 2.4 -1.04636 -2.4 2.4 -1.04636 -1.2 2.4 -1.04636 0 2.4 -1.04636 1.2 2.4 -1.04636 2.4 
        </DataArray>
      </Points>
      <PointData Scalars="Radius">
        <DataArray type="Float32" Name="Radius" NumberOfComponents="1" format="ascii">
0.5 0.5 0.5 0.5 0.5 0.5 0.5 0.5 0.5 0.5 0.5 0.5 0.5 0.5 0.5 0.5 0.5 0.5 0.5 0.5 0.5 0.5 0.5 0.5 0.5 0.5 0.5 0.5 0.5 0.5 0.5 0.5 0.5 0.5 0.5 0.5 0.5 0.5 0.5 0.5 0.5 0.5 0.5 0.5 0.5 0.5 0.5 0.5 0.5 0.5 0.5 0.5 0.5 0.5 0.5 0.5 0.5 0.5 0.5 0.5 0.5 0.5 0.5 0.5 0.5 0.5 0.5 0.5 0.5 0.5 0.5 0.5 0.5 0.5 0.5 0.5 0.5 0.5 0.5 0.5 0.5 0.5 0.5 0.5 0.5 0.5 0.5 0.5 0.5 0.5 0.5 0.5 0.5 0.5 0.5 0.5 0.5 0.5 0.5 0.5 0.5 0.5 0.5 0.5 0.5 0.5 0.5 0.5 0.5 0.5 0.5 0.5 0.5 0.5 0.5 0.5 0.5 0.5 0.5 0.5 0.5 0.5 0.5 0.5 0.5 0.5 0.5 0.5 0.5 0.5 0.5 0.5 0.5 0.5 0.5 0.5 0.5 0.5 0.5 0.5 0.5 0.5 0.5 0.5 0.5 0.5 0.5 0.5 0.5 0.5 0.5 0.5 0.5 0.5 0.5 0.5 0.5 0.5 0.5 0.5 0.5 0.5 0.5 0.5 0.5 0.5 0.5 0.5 0.5 0.5 0.5 0.5 0.5 0.5 0.5 0.5 0.5 0.5 0.5 0.5 0.5 0.5 0.5 0.5 0.5 0.5 0.5 0.5 0.5 0.5 0.5 0.5 0.5 0.5 0.5 0.5 0.5 0.5 0.5 0.5 
        </DataArray>
        <DataArray type="Float32" Name="Velocity" NumberOfComponents="3" format="ascii">
0 -0.49 0 0 -0.49 0 0 -0.49 0 0 -0.49 0 0 -0.49 0 0 -0.49 0 0 -0.49 0 0 -0.49 0 0 -0.49 0 0 -0.49 0 0 -0.49 0 0 -0.49 0 0 -0.49 0 0 -0.49 0 0 -0.49 0 0 -0.49 0 0 -0.49 0 0 -0.49 0 0 -0.49 0 0 -0.49 0 0 -0.49 0 0 -0.49 0 0 -0.49 0 0 -0.49 0 0 -0.49 0 0 -0.0326667 0 0 -0.0326667 0 0 -0.0326667 0 0 -0.0326667 0 0 -0.0326667 0 0 -0.0326667 0 0 -0.0326667 0 0 -0.0326667 0 0 -0.0326667 0 0 -0.0326667 0 0 -0.0326667 0 0 -0.0326667 0 0 -0.0326667 0 0 -0.0326667 0 0 -0.0326667 0 0 -0.0326667 0 0 -0.0326667 0 0 -0.0326667 0 0 -0.0326667 0 0 -0.0326667 0 0 -0.0326667 0 0 -0.0326667 0 0 -0.0326667 0 0 -0.0326667 0 0 -0.0326667 0 0 -0.816667 0 0 -0.816667 0 0 -0.816667 0 0 -0.816667 0 0 -0.816667 0 0 -0.816667 0 0 -0.816667 0 0 -0.816667 0 0 -0.816667 0 0 -0.816667 0 0 -0.816667 0 0 -0.816667 0 0 -0.816667 0 0 -0.816667 0 0 -0.816667 0 0 -0.816667 0 0 -0.816667 0 0 -0.816667 0 0 -0.816667 0 0 -0.816667 0 0 -0.816667 0 0 -0.816667 0 0 -0.816667 0 0 -0.816667 0 0 -0.816667 0 0 -0.49 0 0 -0.49 0 0 -0.49 0 0 -0.49 0 0 -0.49 0 0 -0.49 0 0 -0.49 0 0 -0.49 0 0 -0.49 0 0 -0.49 0 0 -0.49 0 0 -0.49 0 0 -0.49 0 0 -0.49 0 0 -0.49 0 0 -0.49 0 0 -0.49 0 0 -0.49 0 0 -0.49 0 0 -0.49 0 0 -0.49 0 0 -0.49 0 0 -0.49 0 0 -0.49 0 0 -0.49 0 0 -1.01267 0 0 -1.01267 0 0 -1.01267 0 0 -1.01267 0 0 -1.01267 0 0 -1.01267 0 0 -1.01267 0 0 -1.01267 0 0 -1.01267 0 0 -1.01267 0 0 -1.01267 0 0 -1.01267 0 0 -1.01267 0 0 -1.01267 0 0 -1.01267 0 0 -1.01267 0 0 -1.01267 0 0 -1.01267 0 0 -1.01267 0 0 -1.01267 0 0 -1.01267 0 0 -1.01267 0 0 -1.01267 0 0 -1.01267 0 0 -1.01267 0 0 -0.816667 0 0 -0.816667 0 0 -0.816667 0 0 -0.816667 0 0 -0.816667 0 0 -0.816667 0 0 -0.816667 0 0 -0.816667 0 0 -0.816667 0 0 -0.816667 0 0 -0.816667 0 0 -0.816667 0 0 -0.816667 0 0 -0.816667 0 0 -0.816667 0 0 -0.816667 0 0 -0.816667 0 0 -0.816667 0 0 -0.816667 0 0 -0.816667 0 0 -0.816667 0 0 -0.816667 0 0 -0.816667 0 0 -0.816667 0 0 -0.816667 0 0 -1.078 0 0 -1.078 0 0 -1.078 0 0 -1.078 0 0 -1.078 0 0 -1.078 0 0 -1.078 0 0 -1.078 0 0 -1.078 0 0 -1.078 0 0 -1.078 0 0 -1.078 0 0 -1.078 0 0 -1.078 0 0 -1.078 0 0 -1.078 0 0 -1.078 0 0 -1.078 0 0 -1.078 0 0 -1.078 0 0 -1.078 0 0 -1.078 0 0 -1.078 0 0 -1.078 0 0 -1.078 0 0 -1.01267 0 0 -1.01267 0 0 -1.01267 0 0 -1.01267 0 0 -1.01267 0 0 -1.01267 0 0 -1.01267 0 0 -1.01267 0 0 -1.01267 0 0 -1.01267 0 0 -1.01267 0 0 -1.01267 0 0 -1.01267 0 0 -1.01267 0 0 -1.01267 0 0 -1.01267 0 0 -1.01267 0 0 -1.01267 0 0 -1.01267 0 0 -1.01267 0 0 -1.01267 0 0 -1.01267 0 0 -1.01267 0 0 -1.01267 0 0 -1.01267 0 
        </DataArray>
      </PointData>
    </Piece>
  </PolyData>
</VTKFile>
